% Model:              batchmodel_BILLETTA_r_0.0131664_COIL_kr_1.9397_COIL_kw_3.7744_FUNZ_freq_6066_FUNZ_I_eff_61.5962.mph
% Version:            COMSOL 5.6.0.401
% Date:               Jan 27 2022, 12:50
% Table:              Tabella delle sonde 1 - 
% Tempo (s)                                       Temperatura (degC), Punto: (0, 0.5)               Temperatura (degC), Punto: (0.5*BILLETTA_r, 0.5)  Temperatura (degC), Punto: (BILLETTA_r-10*FUNZ_depth_billetta, 0.5)Temperatura (degC), Punto: (BILLETTA_r-5*FUNZ_depth_billetta, 0.5)Temperatura (degC), Punto: (BILLETTA_r-2*FUNZ_depth_billetta, 0.5)Temperatura (degC), Punto: (BILLETTA_r-FUNZ_depth_billetta, 0.5)Temperatura (degC), Punto: (BILLETTA_r-0.01[mm], 0.5)
0                                                 20                                                19.999999999999943                                20.000000000010232                                20.000037150117635                                20.07159330208424                                 20.225458974492824                                20.381300403666955
5                                                 239.45932923644625                                308.59820347251605                                441.3201085913837                                 503.7038997311348                                 539.0715949656046                                 546.278126394337                                  548.9557504841288
10                                                531.3730398334106                                 617.603503801116                                  810.0400344113842                                 919.4643883293776                                 969.9429430792219                                 978.4304261240758                                 980.8468254082098
15                                                722.009704648273                                  837.0753283568969                                 1043.2260953945006                                1083.2482038771855                                1092.7864234055005                                1093.3720760958558                                1092.6547444994653
20                                                913.89689129073                                   1014.5174617086697                                1102.6462430128804                                1113.5114483134553                                1114.5785240946434                                1113.8987296970663                                1112.7130257848412
25                                                1079.0688665461926                                1116.937442790815                                 1142.898837919292                                 1144.1078392664103                                1142.200441536335                                 1141.0272514339758                                1139.6165210224144
30                                                1159.9852640994382                                1175.326948105664                                 1183.6352363372062                                1181.6270587807644                                1178.5300718980334                                1177.10498016585                                  1175.528252187682
35                                                1205.7213843982063                                1215.9355601492484                                1220.0577000324693                                1216.9918952385856                                1213.3694705865164                                1211.7949676549865                                1210.0895441410144
40                                                1239.853134518874                                 1248.9844385644878                                1251.4062951610363                                1247.7576581418002                                1243.796814744595                                 1242.1141193563221                                1240.3078938245185
45                                                1270.0764978209886                                1278.2217993293639                                1279.1125270347652                                1274.9424908258293                                1270.6783032971075                                1268.898101853259                                 1267.0006380936939
50                                                1296.8452700621892                                1304.069625446924                                 1303.6015971116453                                1298.9687201641923                                1294.4326741885488                                1292.5641726730914                                1290.5834549884025
55                                                1320.9958520104897                                1327.153049201956                                 1325.358303260442                                 1320.291381618229                                 1315.5023442219972                                1313.5518718240924                                1311.4939026720958
60                                                1342.013991975657                                 1347.2459166363838                                1344.363461460253                                 1338.939454109186                                 1333.9356612707788                                1331.914016993584                                 1329.7881018807402
65                                                1359.931454494848                                 1364.3506135829516                                1360.5978326567888                                1354.8885348562135                                1349.7061750360836                                1347.623683760879                                 1345.43877133254
70                                                1374.7540713981139                                1378.4675780701127                                1374.057884643853                                 1368.1341436155094                                1362.8090293587702                                1360.6759289201318                                1358.4409023035128
70.394483755401                                   1375.79180884357                                  1379.4542006460592                                1375.0017619802702                                1369.06411738703                                  1363.7292644768959                                1361.5926068693411                                1359.3540044784113
