% Model:              batchmodel_BILLETTA_r_0.0131664_COIL_kr_1.9397_COIL_kw_3.2356_FUNZ_freq_6066_FUNZ_I_eff_127.5152.mph
% Version:            COMSOL 5.6.0.401
% Date:               Jan 27 2022, 12:47
% Table:              Tabella delle sonde 1 - 
% Tempo (s)                                       Temperatura (degC), Punto: (0, 0.5)               Temperatura (degC), Punto: (0.5*BILLETTA_r, 0.5)  Temperatura (degC), Punto: (BILLETTA_r-10*FUNZ_depth_billetta, 0.5)Temperatura (degC), Punto: (BILLETTA_r-5*FUNZ_depth_billetta, 0.5)Temperatura (degC), Punto: (BILLETTA_r-2*FUNZ_depth_billetta, 0.5)Temperatura (degC), Punto: (BILLETTA_r-FUNZ_depth_billetta, 0.5)Temperatura (degC), Punto: (BILLETTA_r-0.01[mm], 0.5)
0                                                 20                                                19.999999999999943                                20.00000000380868                                 20.02286042592158                                 20.52090021034286                                 20.869130396147                                   21.17962742223142
5                                                 525.8844684749124                                 712.6428293965429                                 1171.257061400001                                 1232.291947773383                                 1244.7463552856652                                1245.306848852445                                 1244.2278368291804
10                                                1043.182946283845                                 1208.3663266508843                                1295.091263084094                                 1305.0645588069815                                1305.1329536138192                                1303.9511043210073                                1302.1792403244904
12.830802629162678                                1263.288212938418                                 1334.30729117405                                  1389.0619568212878                                1394.2796392729929                                1392.789033432724                                 1391.2301314746533                                1389.1243635295714
