% Model:              batchmodel_BILLETTA_r_0.0131664_COIL_kr_1.6756_COIL_kw_3.2356_FUNZ_freq_6066_FUNZ_I_eff_61.5962.mph
% Version:            COMSOL 5.6.0.401
% Date:               Jan 27 2022, 12:20
% Table:              Tabella delle sonde 1 - 
% Tempo (s)                                       Temperatura (degC), Punto: (0, 0.5)               Temperatura (degC), Punto: (0.5*BILLETTA_r, 0.5)  Temperatura (degC), Punto: (BILLETTA_r-10*FUNZ_depth_billetta, 0.5)Temperatura (degC), Punto: (BILLETTA_r-5*FUNZ_depth_billetta, 0.5)Temperatura (degC), Punto: (BILLETTA_r-2*FUNZ_depth_billetta, 0.5)Temperatura (degC), Punto: (BILLETTA_r-FUNZ_depth_billetta, 0.5)Temperatura (degC), Punto: (BILLETTA_r-0.01[mm], 0.5)
0                                                 20                                                19.999999999999943                                20.000000000011255                                20.00004158135232                                 20.072658223477504                                20.224871154465916                                20.381199160515337
5                                                 241.49458149865234                                311.61957953555805                                448.9550369285306                                 514.1572159511111                                 551.0298140273032                                 558.5361532383185                                 561.3119787342881
10                                                541.8316698129428                                 629.9978854675101                                 829.2717166569906                                 942.4010588394386                                 992.2997502835343                                 1000.5662883427557                                1002.8536029145208
15                                                727.8943068669115                                 847.4629577634486                                 1048.0426807232116                                1085.2715970858953                                1093.9714700243094                                1094.433617094673                                 1093.6725454665257
20                                                927.8513759681431                                 1023.1535877736695                                1105.0117204358276                                1114.8849392574966                                1115.6674838366566                                1114.9444633330386                                1113.7420552463764
25                                                1086.7683753818555                                1121.6603235107568                                1145.0569135603687                                1145.900285819078                                 1143.8797556325035                                1142.6867897062052                                1141.265753915231
30                                                1165.5297513708806                                1179.2793017925715                                1186.5033896769692                                1184.30896657128                                  1181.141181818637                                 1179.700163629756                                 1178.112083634242
35                                                1208.766866915395                                 1218.849764704692                                 1222.8241389684008                                1219.7150003792426                                1216.0665231107173                                1214.4831642760714                                1212.769060336606
40                                                1242.5775948528376                                1251.6704989287541                                1253.9846801520184                                1250.2917541548554                                1246.3035900590112                                1244.6118772872246                                1242.7971145819324
45                                                1272.783858045305                                 1280.7723245348138                                1281.4995001127086                                1277.2782147057706                                1272.985183684968                                 1271.1959184414472                                1269.2900890415494
50                                                1299.7944534196622                                1306.6351001893672                                1305.8748081929216                                1301.1730551896985                                1296.6032392364673                                1294.725028406248                                 1292.735798662006
55                                                1323.763589788552                                 1329.4780683247627                                1327.3669776132451                                1322.2352414266816                                1317.4160675795497                                1315.4570992908361                                1313.3917190548063
60                                                1344.5704400743766                                1349.3871575179683                                1346.2138073507672                                1340.73337948266                                  1335.7032005534393                                1333.6739708102168                                1331.5413257467922
65                                                1362.2256233023036                                1366.31591809882                                  1362.328186663607                                 1356.5726946167065                                1351.3673315648316                                1349.2778347240119                                1347.0864690866074
68.58026944860727                                 1372.9313220730537                                1376.606728340164                                 1372.188150785344                                 1366.2809342247142                                1360.9721380661608                                1358.8456272039207                                1356.6174640051395
