% Model:              batchmodel_BILLETTA_r_0.0131664_COIL_kr_1.4848_COIL_kw_5.8583_FUNZ_freq_6066_FUNZ_I_eff_127.5152.mph
% Version:            COMSOL 5.6.0.401
% Date:               Jan 27 2022, 12:17
% Table:              Tabella delle sonde 1 - 
% Tempo (s)                                       Temperatura (degC), Punto: (0, 0.5)               Temperatura (degC), Punto: (0.5*BILLETTA_r, 0.5)  Temperatura (degC), Punto: (BILLETTA_r-10*FUNZ_depth_billetta, 0.5)Temperatura (degC), Punto: (BILLETTA_r-5*FUNZ_depth_billetta, 0.5)Temperatura (degC), Punto: (BILLETTA_r-2*FUNZ_depth_billetta, 0.5)Temperatura (degC), Punto: (BILLETTA_r-FUNZ_depth_billetta, 0.5)Temperatura (degC), Punto: (BILLETTA_r-0.01[mm], 0.5)
0                                                 20                                                20                                                20.000000003571074                                20.02216716540272                                 20.51679055921494                                 20.859790351099775                                21.16520822602581
5                                                 525.4624348156719                                 712.4191854338497                                 1171.0205843734238                                1231.7952073533274                                1244.2007173823145                                1244.756316003477                                 1243.6769595562346
10                                                1047.1840964853527                                1213.790666127025                                 1300.1538628864878                                1310.0088363496693                                1310.0191706912228                                1308.8190091743804                                1307.0296137578557
12.158479221744154                                1232.8808183701726                                1313.3331576173555                                1377.980403158138                                 1384.6483285461077                                1383.5393362467844                                1382.0475579977347                                1379.9866785066756
