% Model:              batchmodel_BILLETTA_r_0.0131664_COIL_kr_1.4848_COIL_kw_5.3284_FUNZ_freq_2540.9_FUNZ_I_eff_127.5152.mph
% Version:            COMSOL 5.6.0.401
% Date:               Jan 27 2022, 12:09
% Table:              Tabella delle sonde 1 - 
% Tempo (s)                                       Temperatura (degC), Punto: (0, 0.5)               Temperatura (degC), Punto: (0.5*BILLETTA_r, 0.5)  Temperatura (degC), Punto: (BILLETTA_r-10*FUNZ_depth_billetta, 0.5)Temperatura (degC), Punto: (BILLETTA_r-5*FUNZ_depth_billetta, 0.5)Temperatura (degC), Punto: (BILLETTA_r-2*FUNZ_depth_billetta, 0.5)Temperatura (degC), Punto: (BILLETTA_r-FUNZ_depth_billetta, 0.5)Temperatura (degC), Punto: (BILLETTA_r-0.01[mm], 0.5)
0                                                 20                                                20                                                20.000000000792625                                20.00865495247308                                 20.213785707715203                                20.355097090839138                                20.496494601646646
5                                                 403.5938138854216                                 541.682343266447                                  712.4931126345698                                 909.1385705657191                                 999.4699275532579                                 1013.569132888723                                 1017.3523506134292
10                                                765.1685104492157                                 1041.823996327094                                 1160.738625093185                                 1195.487433149172                                 1199.8427738082246                                1198.7884299216917                                1196.606554754755
15                                                1169.065885992567                                 1209.8032273561043                                1229.4626367422334                                1234.6255782049625                                1232.113161129787                                 1230.1066268248783                                1227.5194555316748
20                                                1250.2521039396215                                1268.887077462708                                 1277.9007894230763                                1278.150451281966                                 1273.8970388504986                                1271.5137846611551                                1268.6579048102317
25                                                1303.9782677448702                                1316.8765460745062                                1322.144925869638                                 1320.1721231392103                                1314.8951984368                                   1312.231918961425                                 1309.1348930257
30                                                1345.9457808052875                                1356.1001237522505                                1359.4202425063927                                1356.21526199448                                  1350.2792463269275                                1347.4045371779057                                1344.1040569361417
35                                                1374.4051378544464                                1383.0962711550696                                1385.5320532611845                                1381.841920049464                                 1375.5964651198324                                1372.595462416618                                 1369.1543555853236
38.21791245111268                                 1387.336798962133                                 1395.2722540236946                                1397.3798584896008                                1393.559141278884                                 1387.2174003168616                                1384.1668004505045                                1380.6635932769059
