% Model:              batchmodel_BILLETTA_r_0.0131664_COIL_kr_1.4848_COIL_kw_4.5299_FUNZ_freq_2540.9_FUNZ_I_eff_174.7421.mph
% Version:            COMSOL 5.6.0.401
% Date:               Jan 27 2022, 12:05
% Table:              Tabella delle sonde 1 - 
% Tempo (s)                                       Temperatura (degC), Punto: (0, 0.5)               Temperatura (degC), Punto: (0.5*BILLETTA_r, 0.5)  Temperatura (degC), Punto: (BILLETTA_r-10*FUNZ_depth_billetta, 0.5)Temperatura (degC), Punto: (BILLETTA_r-5*FUNZ_depth_billetta, 0.5)Temperatura (degC), Punto: (BILLETTA_r-2*FUNZ_depth_billetta, 0.5)Temperatura (degC), Punto: (BILLETTA_r-FUNZ_depth_billetta, 0.5)Temperatura (degC), Punto: (BILLETTA_r-0.01[mm], 0.5)
0                                                 20                                                20                                                20.000000013800104                                20.042821801630225                                20.347023496993074                                20.52364053853063                                 20.699202492242364
5                                                 555.433583084233                                  789.7634714065667                                 1126.258204181006                                 1246.8574929308388                                1270.5343834316363                                1271.7887926999733                                1270.096405291893
10                                                1228.6707571436104                                1302.5934107436537                                1341.439229597721                                 1355.1135883997658                                1354.4242533822976                                1352.331763497485                                 1349.2785853649648
13.570397316514887                                1345.5407596650093                                1381.6145283761134                                1397.2228660155547                                1400.966676909556                                 1397.582088390674                                 1395.0197309227851                                1391.6509519607343
