% Model:              batchmodel_BILLETTA_r_0.0131664_COIL_kr_2.4069_COIL_kw_3.7744_FUNZ_freq_4639.7_FUNZ_I_eff_174.7421.mph
% Version:            COMSOL 5.6.0.401
% Date:               Jan 27 2022, 13:15
% Table:              Tabella delle sonde 1 - 
% Tempo (s)                                       Temperatura (degC), Punto: (0, 0.5)               Temperatura (degC), Punto: (0.5*BILLETTA_r, 0.5)  Temperatura (degC), Punto: (BILLETTA_r-10*FUNZ_depth_billetta, 0.5)Temperatura (degC), Punto: (BILLETTA_r-5*FUNZ_depth_billetta, 0.5)Temperatura (degC), Punto: (BILLETTA_r-2*FUNZ_depth_billetta, 0.5)Temperatura (degC), Punto: (BILLETTA_r-FUNZ_depth_billetta, 0.5)Temperatura (degC), Punto: (BILLETTA_r-0.01[mm], 0.5)
0                                                 20                                                19.999999999999943                                20.000000036540996                                20.075124078109752                                20.647350741050673                                20.986370499649695                                21.296746390102157
5                                                 631.2125679067913                                 1003.1033970698921                                1329.5700588530267                                1368.738725928291                                 1374.9077118757054                                1374.1875439043406                                1372.1556147600313
6.904438993197289                                 897.3803483654877                                 1262.195976762191                                 1380.1119243203907                                1396.0464867827777                                1396.9882272286213                                1395.5772893267372                                1393.268678139258
