% Model:              batchmodel_BILLETTA_r_0.0131664_COIL_kr_2.4069_COIL_kw_5.3284_FUNZ_freq_6066_FUNZ_I_eff_127.5152.mph
% Version:            COMSOL 5.6.0.401
% Date:               Jan 27 2022, 13:25
% Table:              Tabella delle sonde 1 - 
% Tempo (s)                                       Temperatura (degC), Punto: (0, 0.5)               Temperatura (degC), Punto: (0.5*BILLETTA_r, 0.5)  Temperatura (degC), Punto: (BILLETTA_r-10*FUNZ_depth_billetta, 0.5)Temperatura (degC), Punto: (BILLETTA_r-5*FUNZ_depth_billetta, 0.5)Temperatura (degC), Punto: (BILLETTA_r-2*FUNZ_depth_billetta, 0.5)Temperatura (degC), Punto: (BILLETTA_r-FUNZ_depth_billetta, 0.5)Temperatura (degC), Punto: (BILLETTA_r-0.01[mm], 0.5)
0                                                 20                                                20.000000000000057                                20.00000000380868                                 20.02286042825267                                 20.5209002097572                                  20.869130482300363                                21.179627813900197
5                                                 519.3242268227193                                 703.1976624390818                                 1155.4884151248298                                1220.2482638583506                                1233.8130225535824                                1234.5473641851017                                1233.5484314483992
10                                                1018.7681643150255                                1205.9724268251025                                1294.0590112211207                                1303.917075764707                                 1303.9409394033223                                1302.7538818239805                                1300.9828547109896
11.899934821919432                                1194.552793131575                                 1292.1424735977394                                1365.190821173906                                 1373.1083977031544                                1372.3156720161574                                1370.8822623732658                                1368.867072873224
