% Model:              batchmodel_BILLETTA_r_0.0131664_COIL_kr_1.6756_COIL_kw_5.3284_FUNZ_freq_6066_FUNZ_I_eff_85.0125.mph
% Version:            COMSOL 5.6.0.401
% Date:               Jan 27 2022, 12:36
% Table:              Tabella delle sonde 1 - 
% Tempo (s)                                       Temperatura (degC), Punto: (0, 0.5)               Temperatura (degC), Punto: (0.5*BILLETTA_r, 0.5)  Temperatura (degC), Punto: (BILLETTA_r-10*FUNZ_depth_billetta, 0.5)Temperatura (degC), Punto: (BILLETTA_r-5*FUNZ_depth_billetta, 0.5)Temperatura (degC), Punto: (BILLETTA_r-2*FUNZ_depth_billetta, 0.5)Temperatura (degC), Punto: (BILLETTA_r-FUNZ_depth_billetta, 0.5)Temperatura (degC), Punto: (BILLETTA_r-0.01[mm], 0.5)
0                                                 20                                                19.999999999999943                                20.00000000017735                                 20.00098903198375                                 20.25985674319827                                 20.509481414316667                                20.74316268654485
5                                                 361.8220913808532                                 481.2974513127407                                 743.0163445520717                                 897.2220624324297                                 968.8126515862697                                 980.8353370544002                                 984.476424245444
10                                                696.807805109031                                  845.6663426962558                                 1103.7902168280934                                1136.850593037795                                 1143.140467822303                                 1143.0865858789325                                1142.0373568776745
15                                                982.6583943482577                                 1095.173362819292                                 1164.6018591775323                                1171.1205228953318                                1170.5679248053852                                1169.5339651364243                                1168.1064160644414
20                                                1180.256130388616                                 1216.0092589692254                                1243.3459214243517                                1244.4711948462746                                1242.0635101524372                                1240.6229705181227                                1238.901979054223
25                                                1275.0371594629355                                1301.1404704345728                                1320.0802391474235                                1319.1968480019168                                1315.7790046361624                                1314.0408767100544                                1312.0550112501774
30                                                1340.6732777260358                                1359.9944012999022                                1372.3870252945321                                1370.2670861803808                                1366.250402468951                                 1364.3200778451655                                1362.1477147968535
31.619695665865343                                1359.9239074767092                                1376.912453597437                                 1387.125705669126                                 1384.6546371181107                                1380.4778045268986                                1378.4948300440155                                1376.2697105840475
