% Model:              batchmodel_BILLETTA_r_0.0131664_COIL_kr_1.6756_COIL_kw_5.3284_FUNZ_freq_4639.7_FUNZ_I_eff_61.5962.mph
% Version:            COMSOL 5.6.0.401
% Date:               Jan 27 2022, 12:35
% Table:              Tabella delle sonde 1 - 
% Tempo (s)                                       Temperatura (degC), Punto: (0, 0.5)               Temperatura (degC), Punto: (0.5*BILLETTA_r, 0.5)  Temperatura (degC), Punto: (BILLETTA_r-10*FUNZ_depth_billetta, 0.5)Temperatura (degC), Punto: (BILLETTA_r-5*FUNZ_depth_billetta, 0.5)Temperatura (degC), Punto: (BILLETTA_r-2*FUNZ_depth_billetta, 0.5)Temperatura (degC), Punto: (BILLETTA_r-FUNZ_depth_billetta, 0.5)Temperatura (degC), Punto: (BILLETTA_r-0.01[mm], 0.5)
0                                                 20                                                19.999999999999943                                20.000000000006878                                20.000022217423066                                20.076541549559522                                20.237811598204246                                20.38688594790608
5                                                 210.61218527213657                                268.92201665571736                                365.3567093480076                                 420.57499727537845                                454.1101430853266                                 461.16651582951897                                463.8324397710538
10                                                484.96507502478187                                562.957213464765                                  696.3120410946117                                 779.8823522293534                                 825.8212748945183                                 834.5986024638879                                 837.3981905782181
15                                                687.6394864151694                                 776.5550726477153                                 977.3035845513294                                 1053.3365244704532                                1076.106445284056                                 1078.6520773453153                                1078.5062999979136
20                                                842.9732414330659                                 968.2770278208508                                 1076.7086199112146                                1096.8373365707544                                1100.324926063683                                 1099.9090690942166                                1098.7009291062027
25                                                1030.1032239857095                                1082.7110659859059                                1118.116367253559                                 1122.5681674793227                                1121.4423430597567                                1120.3064574778596                                1118.8058044145082
30                                                1119.7820133043529                                1140.5111281114782                                1152.0882995746265                                1151.2308232925698                                1148.317627153779                                 1146.852041289554                                 1145.1731402908176
35                                                1162.7562210908923                                1173.6393623576341                                1178.0046935946862                                1175.3011055249553                                1171.6627236897416                                1170.033738743151                                 1168.2397426253278
40                                                1190.159731446318                                 1197.4487267615                                   1198.6422102828515                                1194.9939330284587                                1190.934807017603                                 1189.1971513311864                                1187.3157368880916
45                                                1211.6673263507                                   1217.0629727901714                                1216.4155041346908                                1212.163952827017                                 1207.8103689751615                                1205.9893023159007                                1204.0354794115751
50                                                1228.521164433335                                 1232.9843979029501                                1231.315122214885                                 1226.685021806804                                 1222.1293693099842                                1220.2471651165993                                1218.2379463498933
55                                                1244.6466257467123                                1248.2640027818816                                1245.6553341294816                                1240.6715960498987                                1235.9247102379331                                1233.9840811410932                                1231.9215891076074
60                                                1258.7526777655485                                1261.7641745427313                                1258.4446041992646                                1253.176294861602                                 1248.2682164588336                                1246.276683170096                                 1244.166802721552
65                                                1271.6013753099692                                1274.0861777037985                                1270.139956254025                                 1264.6166987048937                                1259.5623680057652                                1257.5242224209373                                1255.370698952774
70                                                1281.4845489432714                                1283.629420201043                                 1279.2552562261267                                1273.546917678661                                 1268.3815720019288                                1266.3069367394946                                1264.1186039258714
75                                                1291.3677225765732                                1293.1726626982877                                1288.3705561982288                                1282.4771366524278                                1277.200775998093                                 1275.0896510580515                                1272.8665088989692
80                                                1301.2508962098755                                1302.7159051955327                                1297.4858561703309                                1291.4073556261947                                1286.019979994257                                 1283.8723653766083                                1281.6144138720665
85                                                1310.2510314887022                                1311.410261558192                                 1305.7932835600368                                1299.5462842491934                                1294.0572756305191                                1291.8761365275068                                1289.5861370847197
90                                                1317.702190565149                                 1318.615549621226                                 1312.6835863159786                                1306.2971758562453                                1300.7229916113874                                1298.5135293964263                                1296.1963259205727
95                                                1325.153349641596                                 1325.8208376842595                                1319.57388907192                                  1313.0480674632972                                1307.3887075922553                                1305.150922265345                                 1302.8065147564262
100                                               1332.6045087180428                                1333.0261257472935                                1326.4641918278617                                1319.7989590703492                                1314.0544235731236                                1311.7883151342644                                1309.4167035922792
105                                               1339.1539524446184                                1339.357980023447                                 1332.517590181148                                 1325.7288839461075                                1319.908746479863                                 1317.6174582272247                                1315.221637461535
110                                               1344.5004159722234                                1344.5245845887257                                1337.4544727459765                                1330.563555511716                                 1324.6805883110642                                1322.3683137248363                                1319.9522791164268
115                                               1349.846879499828                                 1349.6911891540044                                1342.3913553108055                                1335.3982270773254                                1329.4524301422653                                1327.1191692224475                                1324.682920771319
120                                               1355.193343027433                                 1354.857793719283                                 1347.3282378756348                                1340.2328986429338                                1334.2242719734659                                1331.870024720059                                 1329.4135624262108
125                                               1360.023199909776                                 1359.5278349469759                                1351.79359602077                                  1344.6063528379677                                1338.5408283925794                                1336.1674958563349                                1333.692609503696
130                                               1363.9705031203898                                1363.3495638255117                                1355.4534174742535                                1348.191878562474                                 1342.0795903024527                                1339.6904201754724                                1337.200167371589
135                                               1367.4452927627594                                1366.7171117200169                                1358.6819597560366                                1351.355552443793                                 1345.201926026933                                 1342.7986571027122                                1340.294674871031
140                                               1370.4475688368852                                1369.6304786304913                                1361.479222866119                                 1354.0973744819253                                1347.9078355660222                                1345.4922066380554                                1342.9761320020211
145                                               1372.9773313427668                                1372.0896645569355                                1363.8452068045017                                1356.41734467687                                  1350.1973189197183                                1347.7710687815006                                1345.2445387645594
150                                               1375.2495106650708                                1374.2988288675856                                1365.970834804611                                 1358.501755332204                                 1352.2544484989571                                1349.8187000077382                                1347.2828236962755
155                                               1377.387883949155                                 1376.3755457427405                                1367.9660584344965                                1360.457891090692                                 1354.1852305233774                                1351.7407518223436                                1349.1963342668955
160                                               1379.2122079316578                                1378.1486046258565                                1369.6707671230201                                1362.1295249359105                                1355.8352996058202                                1353.3833753698664                                1350.8316643554786
165                                               1380.7224826125798                                1379.6180055169343                                1371.084960870182                                 1363.5166568678592                                1357.2046557462863                                1354.7465706503067                                1352.1888139620255
170                                               1381.9187079919207                                1380.783748415974                                 1372.208639675981                                 1364.6192868865378                                1358.293298944775                                 1355.8303376636645                                1353.2677830865355
175                                               1383.0164155090365                                1381.8512073520933                                1373.2348388708338                                1365.6256498021476                                1359.2868403173825                                1356.8194749488498                                1354.252619302776
180                                               1384.139728453145                                 1382.9386560216512                                1374.2747263670312                                1366.6441489356016                                1360.2921722150095                                1357.820406898336                                 1355.2493145268095
185                                               1385.1078995090343                                1383.873865238556                                 1375.1664203629307                                1367.5169282605352                                1361.1536388734266                                1358.678159185114                                 1356.103524200229
190                                               1385.920928676705                                 1384.6568350028078                                1375.9099208585321                                1368.2439877769498                                1361.8712402926344                                1359.3927318091855                                1356.8152483230356
195                                               1386.5788159561557                                1385.287565314407                                 1376.505227853835                                 1368.8253274848448                                1362.4449764726328                                1359.964124770549                                 1357.3844868952287
200                                               1387.2062640137224                                1385.888285204855                                 1377.0714879167517                                1369.3780934877536                                1362.9904192668218                                1360.5073138970483                                1357.9256048032398
205                                               1387.875088382053                                 1386.5293856550397                                1377.6773168555028                                1369.9697495382193                                1363.5741258263429                                1361.0885130922074                                1358.5044641130285
210                                               1388.480711871819                                 1387.1083638962168                                1378.222796893213                                 1370.5020554733924                                1364.099176173867                                 1361.6113022130603                                1359.0251570246041
215                                               1389.0231344830195                                1387.6252199283872                                1378.707928029885                                 1370.9750112932734                                1364.5655703093935                                1362.0756812596055                                1359.4876835379687
220                                               1389.5023562156553                                1388.0799537515504                                1379.132710265516                                 1371.3886169978614                                1364.9733082329235                                1362.481650231844                                 1359.8920436531203
225                                               1389.9688772878299                                1388.5236187390246                                1379.5485881601749                                1371.793873519326                                 1365.372809889565                                 1362.8793742000512                                1360.2881262535275
230                                               1390.4517804783536                                1388.985616228456                                 1379.9851883336578                                1372.2201519947648                                1365.79311182938                                  1363.2977429333723                                1360.7046620539745
235                                               1390.9087156833739                                1389.4231322332294                                1380.3993687453317                                1372.6246824153532                                1366.1919312664395                                1363.694687387046                                 1361.0998136233543
240                                               1391.339682902892                                 1389.836166753345                                 1380.7911293951956                                1373.0074647810925                                1366.5692682007425                                1364.0702075610725                                1361.4735809616668
245                                               1391.7446821369076                                1390.2247197888028                                1381.1604702832506                                1373.3684990919824                                1366.9251226322904                                1364.424303455451                                 1361.8259640689116
250                                               1392.133340844659                                 1390.5982335850113                                1381.5162813831398                                1373.7164717676574                                1367.2681109140776                                1364.7655810375295                                1362.1655663582005
