% Model:              batchmodel_BILLETTA_r_0.0131664_COIL_kr_1.9397_COIL_kw_3.7744_FUNZ_freq_7167.5_FUNZ_I_eff_162.3068.mph
% Version:            COMSOL 5.6.0.401
% Date:               Jan 27 2022, 12:52
% Table:              Tabella delle sonde 1 - 
% Tempo (s)                                       Temperatura (degC), Punto: (0, 0.5)               Temperatura (degC), Punto: (0.5*BILLETTA_r, 0.5)  Temperatura (degC), Punto: (BILLETTA_r-10*FUNZ_depth_billetta, 0.5)Temperatura (degC), Punto: (BILLETTA_r-5*FUNZ_depth_billetta, 0.5)Temperatura (degC), Punto: (BILLETTA_r-2*FUNZ_depth_billetta, 0.5)Temperatura (degC), Punto: (BILLETTA_r-FUNZ_depth_billetta, 0.5)Temperatura (degC), Punto: (BILLETTA_r-0.01[mm], 0.5)
0                                                 20                                                20                                                20.00000004882031                                 20.086797704806884                                20.8983582940142                                  21.395337499821267                                21.817528950783583
5                                                 627.2130033554937                                 970.872361678494                                  1340.7008643052382                                1369.68492039496                                  1374.520027960291                                 1373.9630229641093                                1372.3598248136436
6.287811980776385                                 747.9879584625404                                 1170.1247317756856                                1375.4613611057239                                1393.0836999584935                                1395.234300689975                                 1394.3060833114423                                1392.540098318104
