% Model:              batchmodel_BILLETTA_r_0.0131664_COIL_kr_1.6756_COIL_kw_4.5299_FUNZ_freq_6066_FUNZ_I_eff_61.5962.mph
% Version:            COMSOL 5.6.0.401
% Date:               Jan 27 2022, 12:30
% Table:              Tabella delle sonde 1 - 
% Tempo (s)                                       Temperatura (degC), Punto: (0, 0.5)               Temperatura (degC), Punto: (0.5*BILLETTA_r, 0.5)  Temperatura (degC), Punto: (BILLETTA_r-10*FUNZ_depth_billetta, 0.5)Temperatura (degC), Punto: (BILLETTA_r-5*FUNZ_depth_billetta, 0.5)Temperatura (degC), Punto: (BILLETTA_r-2*FUNZ_depth_billetta, 0.5)Temperatura (degC), Punto: (BILLETTA_r-FUNZ_depth_billetta, 0.5)Temperatura (degC), Punto: (BILLETTA_r-0.01[mm], 0.5)
0                                                 20                                                20                                                20.000000000011312                                20.0000415813538                                  20.072658224976237                                20.224871154068808                                20.381199155846957
5                                                 241.49458148366728                                311.6195804170625                                 448.9550446462209                                 514.1572273999917                                 551.0298272433264                                 558.5361666782295                                 561.3119922358152
10                                                541.8317767999488                                 629.9980954823981                                 829.2723440063675                                 942.4018067009227                                 992.3004074101549                                 1000.5669248533217                                1002.8542305966004
15                                                727.894390143246                                  847.4631725667747                                 1048.0427858153907                                1085.2716408369529                                1093.9714956196021                                1094.4336400262382                                1093.6725674560798
20                                                927.8514856652961                                 1023.1536543689593                                1105.0117500158894                                1114.884965096055                                 1115.6675083309365                                1114.9444875690324                                1113.742079341756
25                                                1086.7684203339222                                1121.6603595707406                                1145.0569436901442                                1145.9003134329873                                1143.8797821451012                                1142.6868159867413                                1141.2657800584166
30                                                1165.5297719329105                                1179.2793176668674                                1186.5034039581797                                1184.3089807547026                                1181.1411958998478                                1179.700177667129                                 1178.1120976248035
35                                                1208.766898510586                                 1218.8497856081367                                1222.8241516658618                                1219.7150116461253                                1216.0665338854724                                1214.4831749611662                                1212.769070976019
40                                                1242.5776089738015                                1251.670511397254                                 1253.9846909492749                                1250.2917646062988                                1246.3036003652933                                1244.61188755585                                  1242.7971248193485
45                                                1272.7838705297013                                1280.7723362134252                                1281.499511044342                                 1277.2782254130398                                1272.9851942598757                                1271.1959289728798                                1269.2900995315727
50                                                1299.7944654646062                                1306.6351114023178                                1305.8748189691296                                1301.1730658007023                                1296.6032497206174                                1294.7250388433868                                1292.7358090519601
55                                                1323.763604659046                                 1329.478081752694                                 1327.3669901163425                                1322.2352536278258                                1317.4160795877092                                1315.4571112347853                                1313.3917309381231
60                                                1344.5704531742708                                1349.387169232209                                 1346.2138182342292                                1340.7333901013858                                1335.7032110037176                                1333.6739812046799                                1331.5413360887596
65                                                1362.2256319035364                                1366.3159258204191                                1362.3281939902695                                1356.572701823215                                 1351.3673386865753                                1349.277841815921                                 1347.0864761496282
68.58029683785308                                 1372.9314014948513                                1376.6068046827172                                1372.1882244451963                                1366.2810069176085                                1360.9722100495333                                1358.845698923309                                 1356.617535457303
