% Model:              batchmodel_BILLETTA_r_0.0131664_COIL_kr_2.7711_COIL_kw_3.7744_FUNZ_freq_4639.7_FUNZ_I_eff_162.3068.mph
% Version:            COMSOL 5.6.0.401
% Date:               Jan 27 2022, 13:40
% Table:              Tabella delle sonde 1 - 
% Tempo (s)                                       Temperatura (degC), Punto: (0, 0.5)               Temperatura (degC), Punto: (0.5*BILLETTA_r, 0.5)  Temperatura (degC), Punto: (BILLETTA_r-10*FUNZ_depth_billetta, 0.5)Temperatura (degC), Punto: (BILLETTA_r-5*FUNZ_depth_billetta, 0.5)Temperatura (degC), Punto: (BILLETTA_r-2*FUNZ_depth_billetta, 0.5)Temperatura (degC), Punto: (BILLETTA_r-FUNZ_depth_billetta, 0.5)Temperatura (degC), Punto: (BILLETTA_r-0.01[mm], 0.5)
0                                                 20                                                19.999999999999943                                20.000000020045775                                20.056616503104692                                20.580944620365017                                20.9029937758213                                  21.197567826485397
5                                                 586.7548853852874                                 869.9596576401256                                 1256.63019335436                                  1308.0282649401897                                1317.5250994773542                                1317.3713645607017                                1315.6798324200704
8.978381208907855                                 1164.8406893156066                                1302.7763996531103                                1385.056547591963                                 1396.5913522741644                                1396.6261424943                                   1395.1274682651988                                1392.7979530123484
