% Model:              batchmodel_BILLETTA_r_0.0131664_COIL_kr_2.7711_COIL_kw_5.8583_FUNZ_freq_6066_FUNZ_I_eff_162.3068.mph
% Version:            COMSOL 5.6.0.401
% Date:               Jan 27 2022, 13:56
% Table:              Tabella delle sonde 1 - 
% Tempo (s)                                       Temperatura (degC), Punto: (0, 0.5)               Temperatura (degC), Punto: (0.5*BILLETTA_r, 0.5)  Temperatura (degC), Punto: (BILLETTA_r-10*FUNZ_depth_billetta, 0.5)Temperatura (degC), Punto: (BILLETTA_r-5*FUNZ_depth_billetta, 0.5)Temperatura (degC), Punto: (BILLETTA_r-2*FUNZ_depth_billetta, 0.5)Temperatura (degC), Punto: (BILLETTA_r-FUNZ_depth_billetta, 0.5)Temperatura (degC), Punto: (BILLETTA_r-0.01[mm], 0.5)
0                                                 20                                                20                                                20.000000034261006                                20.07378573563318                                 20.76219058648411                                 21.185527672946705                                21.55602762368835
5                                                 611.9478369843009                                 931.6980071567137                                 1312.39038704648                                  1347.3767920454038                                1353.3872524886583                                1352.901706804354                                 1351.2378954674846
7.611751935795401                                 1010.7485271457575                                1262.0505748869846                                1385.1557110292442                                1398.3672442203397                                1399.2419577524515                                1398.0381392710938                                1396.039573137758
